version 2
run PureAloha1-0-20090807-18:29:19-29204
attr configname PureAloha1
attr datetime 20090807-18:29:19
attr experiment PureAloha1
attr inifile /home/tomi/work/omnetpp/samples/aloha/omnetpp.ini
attr iterationvars ""
attr iterationvars2 $repetition=0
attr measurement ""
attr network Aloha
attr processid 29204
attr repetition 0
attr replication #0
attr resultdir results
attr runnumber 0
attr seedset 0

vector 2  Aloha.server  "channel utilization"  ETV
attr interpolationmode  linear
attr type  double
attr title "chann. ut."
vector 0  Aloha.server  "collision multiplicity"  ETV
attr interpolationmode  none
attr type  int
attr title "coll. mult."
vector 1  Aloha.server  "collision length"  ETV
attr interpolationmode  none
attr title "coll. len."
attr unit  s
0	17	0.447742609224	4
0	27	0.853514993965	3
0	43	1.154812554703	5
0	53	1.323534388109	3
0	99	2.139615412807	15
0	118	2.717596840098	6
0	128	2.929472804901	3
0	148	3.426589023934	5
0	155	3.653684195039	2
0	162	3.970869721309	2
0	169	4.117520091492	2
0	180	4.784973063865	2
0	187	5.155214327512	2
0	201	5.674294666885	3
0	211	5.890177385905	3
0	241	6.585620018778	7
0	251	6.926411468121	3
0	271	7.42358722983	5
0	278	7.604790798245	2
0	291	7.877137502866	4
0	298	8.015266582612	2
0	313	8.72309547882	3
0	320	8.917919090405	2
0	326	9.05630370456	2
0	340	9.581654900775	3
0	348	9.802442052191	2
0	381	10.913634680089	7
0	392	11.245961635062	2
0	418	11.922956713408	7
0	440	12.279767196189	7
0	447	12.560195951966	2
0	458	12.912506807905	2
0	466	13.259927342557	2
0	487	14.040825726965	3
0	500	14.28290262863	4
0	521	15.120700656236	4
0	538	15.579193574657	4
0	551	15.861670497127	4
0	565	16.458829074699	3
0	593	17.383228835139	2
0	614	18.24065431668	3
0	661	19.694114472712	6
0	671	20.012825182828	3
0	678	20.233749196943	2
0	694	20.535973792956	5
0	705	20.814262658538	2
0	712	20.999689914948	2
0	728	21.356253717272	5
0	750	21.754043769191	7
0	767	22.155864619755	4
0	780	22.495676341099	4
0	791	22.862670697845	2
0	801	23.124605484686	3
0	808	23.338535332505	2
0	819	23.557176296569	2
0	830	23.931819463286	2
0	852	24.453071707143	7
0	859	24.647726433274	2
0	872	25.295715272554	4
0	892	25.684556197838	5
0	912	26.053463798758	6
0	921	26.255270880686	3
0	928	26.625489139531	2
0	939	27.055190427004	2
0	954	27.66708613701	2
0	964	27.827425935311	3
0	977	28.170859921572	4
0	998	28.963886346688	4
0	1017	29.302925639183	6
0	1027	29.497926623785	3
0	1050	30.868235757833	2
0	1060	31.016968558063	3
0	1068	31.178425092156	2
0	1089	31.567862271897	7
0	1100	31.85137648794	2
0	1110	32.146808983625	3
0	1121	32.970898907313	2
0	1128	33.221807814169	2
0	1138	33.589013591075	3
0	1148	33.837452158109	3
0	1155	34.114141308268	2
0	1173	34.715567387547	4
0	1195	35.487694990116	2
0	1208	35.665262489243	4
0	1231	36.278491633063	6
0	1244	36.586048665371	4
0	1251	36.819999823542	2
0	1258	36.999217791905	2
0	1269	37.737811659676	2
0	1277	37.940486680382	2
0	1289	38.205672179107	4
0	1300	38.727189546483	2
0	1307	39.079741170474	2
0	1314	39.294444502924	2
0	1328	39.724872619055	3
0	1351	40.22359000996	6
0	1390	41.116028004554	10
0	1397	41.276355726646	2
0	1407	41.56783885291	3
0	1427	41.928667347854	5
0	1434	42.410291669075	2
0	1455	43.067333522082	4
0	1465	43.410072519114	3
0	1478	43.785263826671	4
0	1485	43.925679741688	2
0	1504	44.318185669546	6
0	1514	44.4967682172	3
0	1525	44.777958363326	2
0	1539	45.257406792901	4
0	1549	45.629273803933	2
0	1556	45.956329920669	2
0	1602	47.322663653017	11
0	1609	47.50735136423	2
0	1625	48.022661327291	5
0	1640	48.80378470762	2
0	1653	49.025783346978	4
0	1682	49.716231420413	8
0	1693	50.448614091523	2
0	1700	50.730185893683	2
0	1707	50.944623456768	2
0	1720	51.332301081972	4
0	1731	51.763466439561	2
0	1746	52.227984918116	2
0	1762	52.699096680566	5
0	1769	53.030541214557	2
0	1776	53.271672461042	2
0	1793	53.752075238782	5
0	1803	54.073632082316	2
0	1813	54.276819911556	3
0	1820	54.462878114973	2
0	1831	54.828806474898	2
0	1838	55.045363009268	2
0	1849	55.522054193596	2
0	1862	55.712482947284	4
0	1885	56.040897148216	7
0	1893	56.154157929716	2
0	1898	56.259254553075	2
0	1923	56.878009189192	4
0	1930	57.312937199043	2
0	1940	57.650080802146	3
0	1951	58.204934450316	2
0	1961	58.680783774366	3
0	1978	59.076562719694	5
0	1990	59.399561321335	4
0	1997	59.544985796858	2
0	2007	59.84233588237	3
0	2018	60.439013502978	2
0	2025	60.738637352816	2
0	2041	61.070547162976	5
0	2048	61.385552566484	2
0	2061	61.690935488044	4
0	2074	62.113113007674	4
0	2098	62.940738937536	5
0	2105	63.33430542511	2
0	2123	64.178228405029	3
0	2131	64.393802812754	2
0	2140	64.646378703959	3
0	2147	65.02227840087	2
0	2154	65.320090713745	2
0	2167	66.168384392177	4
0	2178	66.452808309343	2
0	2191	66.649240732487	4
0	2204	66.891093001645	4
0	2220	67.374545047025	2
0	2226	67.490530323807	2
0	2237	67.809957941019	2
0	2254	68.200500293838	4
0	2261	68.39090555588	2
0	2275	68.973522495479	3
0	2285	69.57830407606	3
0	2311	70.191935408386	7
0	2318	70.354297290267	2
0	2341	71.291918649892	6
0	2354	71.631079714306	4
0	2361	72.003651870572	2
0	2390	72.645413734881	8
1	17	0.447742609224	0.208655286977
1	27	0.853514993965	0.203238321589
1	43	1.154812554703	0.270573160384
1	53	1.323534388109	0.113541189011
1	99	2.139615412807	0.72850147481
1	118	2.717596840098	0.442365745599
1	128	2.929472804901	0.194595313306
1	148	3.426589023934	0.220211388613
1	155	3.653684195039	0.19678478135
1	162	3.970869721309	0.195128770991
1	169	4.117520091492	0.124352697266
1	180	4.784973063865	0.158869628762
1	187	5.155214327512	0.178989706538
1	201	5.674294666885	0.169139390779
1	211	5.890177385905	0.140672894594
1	241	6.585620018778	0.361596977567
1	251	6.926411468121	0.260420363984
1	271	7.42358722983	0.213104558543
1	278	7.604790798245	0.104844052426
1	291	7.877137502866	0.221721894302
1	298	8.015266582612	0.111932796083
1	313	8.72309547882	0.207756365683
1	320	8.917919090405	0.18778297655
1	326	9.05630370456	0.132961992727
1	340	9.581654900775	0.203171103726
1	348	9.802442052191	0.187186956843
1	381	10.913634680089	0.367175957272
1	392	11.245961635062	0.111439436261
1	418	11.922956713408	0.347226173707
1	440	12.279767196189	0.337257519166
1	447	12.560195951966	0.163810101278
1	458	12.912506807905	0.138014825189
1	466	13.259927342557	0.185213190497
1	487	14.040825726965	0.139997101613
1	500	14.28290262863	0.184719326644
1	521	15.120700656236	0.251768330715
1	538	15.579193574657	0.232842185696
1	551	15.861670497127	0.196747419754
1	565	16.458829074699	0.144213318839
1	593	17.383228835139	0.128523017737
1	614	18.24065431668	0.244500324502
1	661	19.694114472712	0.267706136738
1	671	20.012825182828	0.161937302434
1	678	20.233749196943	0.145006589201
1	694	20.535973792956	0.238120907177
1	705	20.814262658538	0.112134006385
1	712	20.999689914948	0.149530439166
1	728	21.356253717272	0.289847175586
1	750	21.754043769191	0.360741064421
1	767	22.155864619755	0.17802548893
1	780	22.495676341099	0.267134022013
1	791	22.862670697845	0.100773498201
1	801	23.124605484686	0.184695128533
1	808	23.338535332505	0.130682795178
1	819	23.557176296569	0.101581304411
1	830	23.931819463286	0.139271937934
1	852	24.453071707143	0.322598803605
1	859	24.647726433274	0.128066418307
1	872	25.295715272554	0.205128333953
1	892	25.684556197838	0.212766216969
1	912	26.053463798758	0.29661857472
1	921	26.255270880686	0.198215560382
1	928	26.625489139531	0.141163579126
1	939	27.055190427004	0.102933432112
1	954	27.66708613701	0.165959651267
1	964	27.827425935311	0.141142504945
1	977	28.170859921572	0.30933533883
1	998	28.963886346688	0.248608418542
1	1017	29.302925639183	0.248930016092
1	1027	29.497926623785	0.159843691968
1	1050	30.868235757833	0.127954883417
1	1060	31.016968558063	0.114195577808
1	1068	31.178425092156	0.144372908034
1	1089	31.567862271897	0.383732450269
1	1100	31.85137648794	0.136961637102
1	1110	32.146808983625	0.172090072699
1	1121	32.970898907313	0.118452024228
1	1128	33.221807814169	0.13454055759
1	1138	33.589013591075	0.262292709969
1	1148	33.837452158109	0.209562174442
1	1155	34.114141308268	0.164265559626
1	1173	34.715567387547	0.206559143583
1	1195	35.487694990116	0.194898841572
1	1208	35.665262489243	0.128781536002
1	1231	36.278491633063	0.323437351205
1	1244	36.586048665371	0.238246787225
1	1251	36.819999823542	0.136691676
1	1258	36.999217791905	0.10227355521
1	1269	37.737811659676	0.138276138787
1	1277	37.940486680382	0.18135402842
1	1289	38.205672179107	0.259937579748
1	1300	38.727189546483	0.140307967701
1	1307	39.079741170474	0.140157414441
1	1314	39.294444502924	0.16694644433
1	1328	39.724872619055	0.209890157587
1	1351	40.22359000996	0.350415369015
1	1390	41.116028004554	0.438403069885
1	1397	41.276355726646	0.102655373046
1	1407	41.56783885291	0.212282165765
1	1427	41.928667347854	0.22187720018
1	1434	42.410291669075	0.172239959814
1	1455	43.067333522082	0.228993016207
1	1465	43.410072519114	0.172441128755
1	1478	43.785263826671	0.324600151837
1	1485	43.925679741688	0.101883411949
1	1504	44.318185669546	0.371509948356
1	1514	44.4967682172	0.141389984744
1	1525	44.777958363326	0.102473381645
1	1539	45.257406792901	0.242732812013
1	1549	45.629273803933	0.174098038112
1	1556	45.956329920669	0.154411231908
1	1602	47.322663653017	0.617929960183
1	1609	47.50735136423	0.120283579191
1	1625	48.022661327291	0.282175810902
1	1640	48.80378470762	0.177181959149
1	1653	49.025783346978	0.166363315912
1	1682	49.716231420413	0.400805311949
1	1693	50.448614091523	0.119946655499
1	1700	50.730185893683	0.153984997726
1	1707	50.944623456768	0.158880650726
1	1720	51.332301081972	0.236633048812
1	1731	51.763466439561	0.168493142957
1	1746	52.227984918116	0.131123263561
1	1762	52.699096680566	0.29782768754
1	1769	53.030541214557	0.120934398728
1	1776	53.271672461042	0.195607318811
1	1793	53.752075238782	0.216777590649
1	1803	54.073632082316	0.109399422104
1	1813	54.276819911556	0.180133313842
1	1820	54.462878114973	0.141241618773
1	1831	54.828806474898	0.19416014121
1	1838	55.045363009268	0.176278211218
1	1849	55.522054193596	0.195805150718
1	1862	55.712482947284	0.177916369087
1	1885	56.040897148216	0.287956278587
1	1893	56.154157929716	0.11300089682
1	1898	56.259254553075	0.102055378865
1	1923	56.878009189192	0.171817709356
1	1930	57.312937199043	0.159459375064
1	1940	57.650080802146	0.149690905741
1	1951	58.204934450316	0.111280720133
1	1961	58.680783774366	0.204154136872
1	1978	59.076562719694	0.340871057096
1	1990	59.399561321335	0.315869484074
1	1997	59.544985796858	0.121050724496
1	2007	59.84233588237	0.147232879961
1	2018	60.439013502978	0.179399349871
1	2025	60.738637352816	0.162928900129
1	2041	61.070547162976	0.28818392723
1	2048	61.385552566484	0.150902795461
1	2061	61.690935488044	0.167877301684
1	2074	62.113113007674	0.268701902661
1	2098	62.940738937536	0.255773925178
1	2105	63.33430542511	0.169353945168
1	2123	64.178228405029	0.276574423082
1	2131	64.393802812754	0.10187770116
1	2140	64.646378703959	0.245065937159
1	2147	65.02227840087	0.141279526633
1	2154	65.320090713745	0.181455173615
1	2167	66.168384392177	0.294621818387
1	2178	66.452808309343	0.140263333811
1	2191	66.649240732487	0.133573029528
1	2204	66.891093001645	0.194512169741
1	2220	67.374545047025	0.139709586407
1	2226	67.490530323807	0.106992290983
1	2237	67.809957941019	0.183300343868
1	2254	68.200500293838	0.236395017782
1	2261	68.39090555588	0.150281137808
1	2275	68.973522495479	0.184279325926
1	2285	69.57830407606	0.157984120948
1	2311	70.191935408386	0.322278005945
1	2318	70.354297290267	0.135954489637
1	2341	71.291918649892	0.361393807199
1	2354	71.631079714306	0.182027286111
1	2361	72.003651870572	0.161691972674
1	2390	72.645413734881	0.353913421414
2	4	0.18319441745	0.54131926095983
2	17	0.447742609224	0.22148141504305
2	27	0.853514993965	0.11618620336747
2	43	1.154812554703	0.085872522135425
2	53	1.323534388109	0.07492564421215
2	99	2.139615412807	0.046347893211286
2	118	2.717596840098	0.036490573289901
2	128	2.929472804901	0.033851369604829
2	132	3.131603121864	0.063332844429516
2	148	3.426589023934	0.057880688914452
2	155	3.653684195039	0.054283107883626
2	162	3.970869721309	0.04994707639681
2	169	4.117520091492	0.048168151927616
2	173	4.523422077212	0.065768790734064
2	180	4.784973063865	0.062173808718935
2	187	5.155214327512	0.057708560905086
2	191	5.370173029892	0.073864783212018
2	201	5.674294666885	0.069905898433321
2	211	5.890177385905	0.067343755658906
2	215	6.033666235744	0.082177786101697
2	219	6.19485281903	0.096047479637969
2	241	6.585620018778	0.090348364815984
2	251	6.926411468121	0.085903068671924
2	255	7.075861811685	0.098103479849714
2	271	7.42358722983	0.093508252165833
2	278	7.604790798245	0.091280179176289
2	291	7.877137502866	0.088124228681985
2	298	8.015266582612	0.086605561961956
2	302	8.404533893653	0.094393495625869
2	313	8.72309547882	0.09094630859587
2	320	8.917919090405	0.088959467481777
2	326	9.05630370456	0.087600124643406
2	330	9.346608064141	0.095489186437393
2	340	9.581654900775	0.093146748576993
2	348	9.802442052191	0.091048740226372
2	351	9.905346196439	0.10011428646648
2	355	10.164594707868	0.10731695307848
2	359	10.521597741363	0.11310069337795
2	381	10.913634680089	0.10903791769419
2	385	11.049157684489	0.11667556056945
2	392	11.245961635062	0.11463374218161
2	396	11.384731894435	0.12194695019587
2	418	11.922956713408	0.11644203419465
2	440	12.279767196189	0.11305860372946
2	447	12.560195951966	0.11053436894085
2	451	12.700611618338	0.11712034386141
2	458	12.912506807905	0.11519839037602
2	466	13.259927342557	0.11218010186345
2	470	13.36339235542	0.11873232667695
2	473	13.46977260885	0.12515677749559
2	477	13.843597841964	0.12894046911542
2	487	14.040825726965	0.12712927535024
2	500	14.28290262863	0.12497459699893
2	504	14.579117909524	0.12923735704361
2	508	14.737266228907	0.13457946015997
2	521	15.120700656236	0.13116676127717
2	525	15.315778656012	0.13597088641448
2	538	15.579193574657	0.13367187396488
2	551	15.861670497127	0.13129134162528
2	555	16.30397531873	0.1338119461053
2	565	16.458829074699	0.13255296939718
2	569	16.648165748155	0.137002079858
2	573	16.768319896718	0.14193431510391
2	577	16.903404944777	0.14666670264064
2	581	17.037031961168	0.15133700160877
2	585	17.184405287303	0.15580987268499
2	593	17.383228835139	0.15402777155931
2	596	17.489546404184	0.15876150258441
2	600	17.620939054872	0.16320545257881
2	604	17.915865770578	0.16605393443311
2	614	18.24065431668	0.16309721944895
2	618	18.350693073864	0.16752319131883
2	622	18.638479436786	0.17025709334684
2	626	18.851905989399	0.17358987477543
2	630	18.979706123611	0.1776458836973
2	634	19.117578220655	0.18155193577605
2	638	19.22718125102	0.18567464223528
2	642	19.403437627454	0.18909879461001
2	661	19.694114472712	0.18630777594626
2	671	20.012825182828	0.18334076439094
2	678	20.233749196943	0.18133894173188
2	694	20.535973792956	0.17867020593397
2	698	20.678464484614	0.18223467879406
2	705	20.814262658538	0.18104572788036
2	712	20.999689914948	0.17944709415093
2	728	21.356253717272	0.17645104722933
2	750	21.754043769191	0.17322449900762
2	754	21.929861253637	0.17635770492313
2	767	22.155864619755	0.17455874850064
2	780	22.495676341099	0.17192192585507
2	784	22.676705971071	0.17492252497785
2	791	22.862670697845	0.17349970697054
2	801	23.124605484686	0.1715344579291
2	808	23.338535332505	0.16996210816689
2	814	23.449371232429	0.17338773364137
2	819	23.557176296569	0.17259425671905
2	823	23.77632589895	0.1751742475971
2	830	23.931819463286	0.17403607804921
2	852	24.453071707143	0.17032624980016
2	859	24.647726433274	0.16898110303388
2	872	25.295715272554	0.16465239093243
2	876	25.417044415982	0.16776799838917
2	892	25.684556197838	0.16602064811994
2	912	26.053463798758	0.16366985593836
2	921	26.255270880686	0.16241183288552
2	928	26.625489139531	0.16015355227059
2	932	26.788135471688	0.16288305462377
2	939	27.055190427004	0.16127527710723
2	943	27.351476942548	0.16315389510203
2	948	27.498819161042	0.16588591095208
2	954	27.66708613701	0.1648770182753
2	964	27.827425935311	0.16392700773835
2	977	28.170859921572	0.16192855593815
2	981	28.326756302435	0.16453819433259
2	985	28.704401485781	0.16582822680786
2	998	28.963886346688	0.16434258659188
2	1017	29.302925639183	0.16244111794773
2	1027	29.497926623785	0.16136727373001
2	1031	29.622485484721	0.16403642662397
2	1035	30.257126042828	0.1638732418367
2	1039	30.379724567378	0.16647616369099
2	1043	30.61591501454	0.16843091784724
2	1050	30.868235757833	0.16705414287642
2	1060	31.016968558063	0.16625308359774
2	1068	31.178425092156	0.16539214701801
2	1089	31.567862271897	0.16335178550315
2	1093	31.694099471101	0.16583002580939
2	1100	31.85137648794	0.16501118359164
2	1110	32.146808983625	0.16349471376693
2	1114	32.603776015164	0.16424477942289
2	1121	32.970898907313	0.16241595399076
2	1128	33.221807814169	0.16118930161531
2	1138	33.589013591075	0.15942712891655
2	1148	33.837452158109	0.15825659612143
2	1155	34.114141308268	0.15697302627594
2	1159	34.490256626816	0.15813644779869
2	1173	34.715567387547	0.15711011160332
2	1176	34.820552482671	0.15948435442142
2	1180	34.969449885186	0.16164109010924
2	1184	35.137996852416	0.16368794985058
2	1188	35.252428837322	0.16596965163148
2	1195	35.487694990116	0.16486935358646
2	1208	35.665262489243	0.16404851457517
2	1212	35.913767912811	0.16567462412758
2	1231	36.278491633063	0.16400902386298
2	1244	36.586048665371	0.1626302980784
2	1251	36.819999823542	0.16159695894826
2	1258	36.999217791905	0.16081421054425
2	1262	37.514755764741	0.16124766224152
2	1269	37.737811659676	0.16029457990776
2	1277	37.940486680382	0.15943829918644
2	1289	38.205672179107	0.15833163825172
2	1294	38.580593966817	0.15936336642666
2	1300	38.727189546483	0.15876012190124
2	1307	39.079741170474	0.15732789289652
2	1314	39.294444502924	0.15646825934477
2	1318	39.476315716141	0.15825944966297
2	1328	39.724872619055	0.1572692267605
2	1332	39.861741542171	0.1592169940671
2	1351	40.22359000996	0.1577846896573
2	1355	40.357252176811	0.15971933136205
2	1359	40.663381290686	0.16095562622224
2	1390	41.116028004554	0.15918366431775
2	1397	41.276355726646	0.15856535502554
2	1407	41.56783885291	0.15745345874525
2	1411	41.688267854795	0.15937737422347
2	1427	41.928667347854	0.15846357842714
2	1434	42.410291669075	0.15666401727359
2	1438	42.565900573066	0.15842101876155
2	1442	42.779702016583	0.15994735066882
2	1455	43.067333522082	0.1588791188209
2	1465	43.410072519114	0.15762470788182
2	1478	43.785263826671	0.15627403838517
2	1485	43.925679741688	0.15577448181092
2	1504	44.318185669546	0.15439485837652
2	1514	44.4967682172	0.15377521276498
2	1518	44.640673334952	0.15550094001797
2	1525	44.777958363326	0.15502418869337
2	1539	45.257406792901	0.15338189168428
2	1542	45.359595709475	0.15522257690263
2	1549	45.629273803933	0.15430518056325
2	1556	45.956329920669	0.15320704123763
2	1560	46.098540392585	0.1548855980937
2	1564	46.331855409767	0.15624599107015
2	1568	46.65238847123	0.15729812714325
2	1602	47.322663653017	0.15507016652931
2	1609	47.50735136423	0.15446732184715
2	1625	48.022661327291	0.15280980125759
2	1629	48.438374119663	0.15354561615913
2	1633	48.563193300647	0.1551929795876
2	1640	48.80378470762	0.15442791397773
2	1653	49.025783346978	0.15372863322296
2	1657	49.215450172058	0.15515114271203
2	1682	49.716231420413	0.15358833755341
2	1686	50.271833505033	0.15386349493646
2	1693	50.448614091523	0.15332433089074
2	1700	50.730185893683	0.15247332261227
2	1707	50.944623456768	0.15183152755093
2	1720	51.332301081972	0.15068484827119
2	1724	51.577621609637	0.15189080888426
2	1731	51.763466439561	0.15134547984264
2	1735	51.917515413013	0.15280649064519
2	1739	52.065272359691	0.15427749891432
2	1746	52.227984918116	0.15379685838042
2	1762	52.699096680566	0.15242196747005
2	1769	53.030541214557	0.15146931967839
2	1776	53.271672461042	0.15078370227291
2	1793	53.752075238782	0.14943609087209
2	1796	53.85423285856	0.15099401170505
2	1803	54.073632082316	0.15038136617554
2	1813	54.276819911556	0.14981840645533
2	1820	54.462878114973	0.14930659098562
2	1824	54.623319753566	0.15068350606319
2	1831	54.828806474898	0.15011877628681
2	1838	55.045363009268	0.14952818699537
2	1842	55.196664086734	0.15091491737353
2	1849	55.522054193596	0.15003047205168
2	1862	55.712482947284	0.14951765850799
2	1885	56.040897148216	0.14864144622655
2	1893	56.154157929716	0.14834164213396
2	1898	56.259254553075	0.14806452851389
2	1902	56.461165448119	0.14929140409536
2	1906	56.585447095713	0.15071601924167
2	1910	56.695832649486	0.15217167817748
2	1923	56.878009189192	0.15168428225476
2	1930	57.312937199043	0.15053320282608
2	1940	57.650080802146	0.14965286917032
2	1944	58.066789764689	0.15028670780617
2	1951	58.204934450316	0.1499300145086
2	1961	58.680783774366	0.14871421452316
2	1978	59.076562719694	0.14771791493717
2	1990	59.399561321335	0.14691466523463
2	1997	59.544985796858	0.14655586108257
2	2007	59.84233588237	0.14582764088223
2	2011	60.106311909368	0.14683704677442
2	2018	60.439013502978	0.14602874570147
2	2025	60.738637352816	0.14530838553402
2	2041	61.070547162976	0.14451865495361
2	2048	61.385552566484	0.14377704466723
2	2061	61.690935488044	0.14306531848564
2	2074	62.113113007674	0.14209291574524
2	2078	62.401087645593	0.14302635317239
2	2082	62.559491193423	0.14424936159894
2	2098	62.940738937536	0.14337560726069
2	2105	63.33430542511	0.14248465513333
2	2109	63.452978527112	0.14378100989182
2	2113	63.810612773849	0.14452924990116
2	2123	64.178228405029	0.14370138018979
2	2131	64.393802812754	0.14322030377295
2	2140	64.646378703959	0.14266073653052
2	2147	65.02227840087	0.14183600185586
2	2154	65.320090713745	0.14118933239628
2	2167	66.168384392177	0.13937925316835
2	2172	66.305071862113	0.14058753583722
2	2178	66.452808309343	0.14027498466597
2	2191	66.649240732487	0.13986155827369
2	2204	66.891093001645	0.13935587308126
2	2208	67.052078857031	0.14050024240646
2	2212	67.207210197269	0.14165146822778
2	2220	67.374545047025	0.14129965543057
2	2226	67.490530323807	0.14105682610969
2	2231	67.619098055517	0.14225517558227
2	2237	67.809957941019	0.14185478001577
2	2241	67.939559583767	0.14304380824379
2	2254	68.200500293838	0.14249651089651
2	2261	68.39090555588	0.14209979023201
2	2265	68.71878607667	0.14286486360485
2	2275	68.973522495479	0.14233722803671
2	2285	69.57830407606	0.14110001860928
2	2289	69.707565618598	0.14226098097958
2	2311	70.191935408386	0.14127928812482
2	2318	70.354297290267	0.14095324732882
2	2322	70.636598428133	0.14179382297771
2	2341	71.291918649892	0.1404904444002
2	2354	71.631079714306	0.1398252458739
2	2361	72.003651870572	0.13910174099599
2	2366	72.284741373046	0.13993271343022
2	2390	72.645413734881	0.13923797084902
2	2394	72.827250430248	0.140251988181
2	2399	72.938719360219	0.14139723625157
2	2402	73.040816932559	0.14255727738566
2	2406	73.275543146248	0.14345395769522
2	2410	73.562134345743	0.14424314122523
